<?xml version="1.0" encoding="UTF-8"?>

<!-- generated on 2026-01-16T14:16:44.939442+05:30 by Eclipse SUMO GUI 1.25.0
<sumoConfiguration xmlns:xsi="http://www.w3.org/2001/XMLSchema-instance" xsi:noNamespaceSchemaLocation="http://sumo.dlr.de/xsd/sumoConfiguration.xsd">

    <input>
        <net-file value="C:\Users\SHUBHAM\OneDrive\Desktop\New folder\sumo_env\cross_2lanes.net.xml"/>
        <route-files value="C:\Users\SHUBHAM\OneDrive\Desktop\New folder\sumo_env\cross_2lanes.rou.xml"/>
        <additional-files value="C:\Users\SHUBHAM\OneDrive\Desktop\New folder\sumo_env\cross.det.xml"/>
    </input>

    <time>
        <begin value="0"/>
    </time>

    <processing>
        <lateral-resolution value="0.64"/>
    </processing>

    <report>
        <verbose value="true"/>
        <no-step-log value="true"/>
    </report>

</sumoConfiguration>
-->

<detector xmlns:xsi="http://www.w3.org/2001/XMLSchema-instance" xsi:noNamespaceSchemaLocation="http://sumo.dlr.de/xsd/det_e1_file.xsd">
</detector>
